# //  Questa Intel Starter FPGA Edition-64
# //  Version 2021.2 win64 Apr 14 2021
# //
# //  Copyright 1991-2021 Mentor Graphics Corporation
# //  All Rights Reserved.
# //
# //  QuestaSim and its associated documentation contain trade
# //  secrets and commercial or financial information that are the property of
# //  Mentor Graphics Corporation and are privileged, confidential,
# //  and exempt from disclosure under the Freedom of Information Act,
# //  5 U.S.C. Section 552. Furthermore, this information
# //  is prohibited from disclosure under the Trade Secrets Act,
# //  18 U.S.C. Section 1905.
# //
# vsim fp_adder_tb 
# Start time: 14:52:58 on Nov 04,2022
# ** Note: (vsim-3813) Design is being optimized due to module recompilation...
# ** Warning: fp_adder.v(50): (vopt-2241) Connection width does not match width of port 'cin'. The port definition is at: CarryLookAheadAdder.v(31).
# ** Note: (vsim-12126) Error and warning message counts have been restored: Errors=0, Warnings=1.
# Loading work.fp_adder_tb(fast)
vsim work.fp_adder_tb -voptargs=+acc
# End time: 14:53:14 on Nov 04,2022, Elapsed time: 0:00:16
# Errors: 0, Warnings: 1
# vsim work.fp_adder_tb -voptargs="+acc" 
# Start time: 14:53:14 on Nov 04,2022
# ** Note: (vsim-3812) Design is being optimized...
# Loading work.fp_adder_tb(fast)
# Loading work.fp_adder(fast)
# Loading work.CLA(fast)
# Loading work.CLA_4bit(fast)
# Loading work.count_leading_zeros(fast)
# ** Warning: (vsim-3015) [PCDPC] - Port size (1) does not match connection size (32) for port 'cin'. The port definition is at: CarryLookAheadAdder.v(31).
#    Time: 0 ns  Iteration: 0  Instance: /fp_adder_tb/fp_adder_dut/CLA_dut File: fp_adder.v Line: 50
add wave -position insertpoint  \
sim:/fp_adder_tb/A \
sim:/fp_adder_tb/B \
sim:/fp_adder_tb/FailureCounter \
sim:/fp_adder_tb/overflow \
sim:/fp_adder_tb/SuccessCounter \
sim:/fp_adder_tb/Sum \
sim:/fp_adder_tb/T \
sim:/fp_adder_tb/TestsCounter \
sim:/fp_adder_tb/underflow
# ** Warning: (vsim-WLF-5000) WLF file currently in use: vsim.wlf
#           File in use by: aatta  Hostname: MYLOLY  ProcessID: 31360
#           Attempting to use alternate WLF file "./wlft6baa6f".
# ** Warning: (vsim-WLF-5001) Could not open WLF file: vsim.wlf
#           Using alternate file: ./wlft6baa6f
run
# TestCase# 0 : success
# TestCase# 1 : success
# TestCase# 2 : success
# TestCase# 3 : success
# Time                   50: TestCase# 4 : failed with input 7f5ffffe and 7f5fffff and Output 7f9ffffe and overflow status 1 , underflow status 0
# Time                   60: TestCase# 5 : failed with input ff5ffffe and ff5fffff and Output ff9ffffe and overflow status 0 , underflow status 1
# TestCase# 6 : success
# TestCase# 7 : success
# TestCase# 8 : success
# Total Tests: 9 || Success Cases=7 || Failure Cases=2 
# ** Note: $stop    : fp_adder_tb.v(127)
#    Time: 90 ns  Iteration: 0  Instance: /fp_adder_tb
# Break in Module fp_adder_tb at fp_adder_tb.v line 127
run
restart
# ** Note: (vsim-12125) Error and warning message counts have been reset to '0' because of 'restart'.
# ** Note: (vsim-3813) Design is being optimized due to module recompilation...
# Loading work.fp_adder_tb(fast)
# Loading work.fp_adder(fast)
# Loading work.CLA(fast)
# Loading work.CLA_4bit(fast)
# Loading work.count_leading_zeros(fast)
run -all
# TestCase# 0 : success
# TestCase# 1 : success
# TestCase# 2 : success
# TestCase# 3 : success
# Time                   50: TestCase# 4 : failed with input 7f5ffffe and 7f5fffff and Output 7f9ffffe and overflow status 1 , underflow status 0
# Time                   60: TestCase# 5 : failed with input ff5ffffe and ff5fffff and Output ff9ffffe and overflow status 0 , underflow status 1
# TestCase# 6 : success
# TestCase# 7 : success
# TestCase# 8 : success
# Total Tests: 9 || Success Cases=7 || Failure Cases=2 
# ** Note: $stop    : fp_adder_tb.v(127)
#    Time: 90 ns  Iteration: 0  Instance: /fp_adder_tb
# Break in Module fp_adder_tb at fp_adder_tb.v line 127
